------------------------------------------------------------
          Invoking FHI-aims ...

          When using FHI-aims, please cite the following reference:

            Volker Blum, Ralf Gehrke, Felix Hanke, Paula Havu,
            Ville Havu, Xinguo Ren, Karsten Reuter, and Matthias Scheffler,
            'Ab Initio Molecular Simulations with Numeric Atom-Centered Orbitals',
            Computer Physics Communications 180, 2175-2196 (2009)

          In addition, many other developments in FHI-aims are likely important for
          your particular application. A partial list of references is given at the end of
          this file. Thank you for giving credit to the authors of these developments.

          For any questions about FHI-aims, please visit our slack channel at

            https://fhi-aims.slack.com

          and our main development and support site at

            https://aims-git.rz-berlin.mpg.de .

          The latter site, in particular, has a wiki to collect information, as well
          as an issue tracker to log discussions, suggest improvements, and report issues
          or bugs. https://aims-git.rz-berlin.mpg.de is also the main development site
          of the project and all new and updated code versions can be obtained there.
          Please send an email to aims-coordinators@fhi-berlin.mpg.de and we will add
          you to these sites. They are for you and everyone is welcome there.

------------------------------------------------------------



  Date     :  20221215, Time     :  122455.708
  Time zero on CPU 1             :   0.480579200000000E+01  s.
  Internal wall clock time zero  :           440339095.708  s.

  FHI-aims created a unique identifier for this run for later identification
  aims_uuid : 93F5DAEE-F661-4F0D-AFEA-18AFD563E2C3

  Build configuration of the current instance of FHI-aims
  -------------------------------------------------------
  FHI-aims version      : 221103
  Commit number         : fe4ac0929
  CMake host system     : Linux-5.15.0-52-generic
  CMake version         : 3.22.1
  Fortran compiler      : /opt/intel/oneapi/mpi/2021.7.1/bin/mpiifort (Intel) version 2021.7.0.20221019
  Fortran compiler flags: -O3 -ip -fp-model precise
  C compiler            : /opt/intel/oneapi/compiler/2022.2.1/linux/bin/intel64/icc (Intel) version 2021.7.0.20221019
  C compiler flags      : -O3 -ip -fp-model precise -std=gnu99 -diag-disable=10441
  HIP compiler          :
  HIP compiler flags    :
  HIP GPU arch          :
  Using MPI
  Using ScaLAPACK
  Using LibXC
  Using i-PI
  Using RLSY
  Linking against: /opt/intel/oneapi/mkl/latest/lib/intel64/libmkl_intel_lp64.so
                   /opt/intel/oneapi/mkl/latest/lib/intel64/libmkl_sequential.so
                   /opt/intel/oneapi/mkl/latest/lib/intel64/libmkl_core.so
                   /opt/intel/oneapi/mkl/latest/lib/intel64/libmkl_blacs_intelmpi_lp64.so
                   /opt/intel/oneapi/mkl/latest/lib/intel64/libmkl_scalapack_lp64.so

  Using        8 parallel tasks.
  Task        0 on host andrey-Latitude-5411 reporting.
  Task        1 on host andrey-Latitude-5411 reporting.
  Task        2 on host andrey-Latitude-5411 reporting.
  Task        3 on host andrey-Latitude-5411 reporting.
  Task        4 on host andrey-Latitude-5411 reporting.
  Task        5 on host andrey-Latitude-5411 reporting.
  Task        6 on host andrey-Latitude-5411 reporting.
  Task        7 on host andrey-Latitude-5411 reporting.

  Performing system and environment tests:
  *** Environment variable OMP_NUM_THREADS is not set
  *** For performance reasons you might want to set it to 1
  | Checking for ScaLAPACK...
  | Testing pdtran()...
  | All pdtran() tests passed.

  Obtaining array dimensions for all initial allocations:

  -----------------------------------------------------------------------
  Parsing control.in (first pass over file, find array dimensions only).
  The contents of control.in will be repeated verbatim below
  unless switched off by setting 'verbatim_writeout .false.' .
  in the first line of control.in .
  -----------------------------------------------------------------------

  xc                                 pbe
  k_grid                             8 8 8
  output                             json_log
  relativistic                       atomic_zora scalar
  #===============================================================================

  ################################################################################
  #
  #  FHI-aims code project
  #  VB, Fritz-Haber Institut, 2009
  #
  #  Suggested "light" defaults for Ga atom (to be pasted into control.in file)
  #  Be sure to double-check any results obtained with these settings for post-processing,
  #  e.g., with the "tight" defaults and larger basis sets.
  #
  #  2020/09/15 Added f function to light settings to improve bulk properties of Ga-Br.
  #
  ################################################################################
    species        Ga
  #     global species definitions
      nucleus             31
      mass                69.723
  #
      l_hartree           4
  #
      cut_pot             3.5          1.5  1.0
      basis_dep_cutoff    1e-4
  #
      radial_base         54 5.0
      radial_multiplier   1
      angular_grids       specified
        division   0.5103   50
        division   0.8880  110
        division   1.2009  194
        division   1.5000  302
  #      division   1.7093  434
  #      division   1.8791  590
  #      division   1.9525  770
  #      division   2.3801 1202
  #      outer_grid  1202
        outer_grid  302
  ################################################################################
  #
  #  Definition of "minimal" basis
  #
  ################################################################################
  #     valence basis states
      valence      4  s   2.
      valence      4  p   1.
      valence      3  d  10.
  #     ion occupancy
      ion_occ      4  s   1.
      ion_occ      3  p   6.
      ion_occ      3  d  10.
  ################################################################################
  #
  #  Suggested additional basis functions. For production calculations,
  #  uncomment them one after another (the most important basis functions are
  #  listed first).
  #
  #  Constructed for dimers: 1.85 A, 2.10 A, 2.45 A, 3.00 A, 4.00 A
  #
  ################################################################################
  #  "First tier" - improvements: -222.33 meV to -26.19 meV
       hydro 2 p 1.2
       hydro 3 d 3.8
       hydro 4 f 6.8
       ionic 4 s auto
  #  "Second tier" - improvements: -11.68 meV to -1.61 meV
  #     hydro 5 g 10
  #     hydro 4 p 3.6
  #     hydro 4 f 13.2
  #     hydro 6 h 14.4
  #     hydro 4 d 5.2
  #     hydro 1 s 0.45
  #  "Third tier" - improvements: -0.64 meV to -0.15 meV
  #     hydro 3 p 3.4
  #     hydro 3 s 2.2
  #     hydro 5 g 14
  #     hydro 4 f 6.2
  #     hydro 5 d 7.2
  #  "Fourth tier"  -improvements: -0.12 meV and below
  #     hydro 3 s 3.8
  #     hydro 5 f 27.2
  #     hydro 6 h 16
  #     hydro 5 g 9.2
  #     hydro 4 d 8.6
  #     hydro 2 p 3.6

  ################################################################################
  #
  #  FHI-aims code project
  #  VB, Fritz-Haber Institut, 2009
  #
  #  Suggested "light" defaults for As atom (to be pasted into control.in file)
  #  Be sure to double-check any results obtained with these settings for post-processing,
  #  e.g., with the "tight" defaults and larger basis sets.
  #
  #  2020/09/15 Added f function to light settings to improve bulk properties of Ga-Br.
  #
  ################################################################################
    species        As
  #
      nucleus             33
      mass                74.92160
  #
      l_hartree           4
  #
      cut_pot             3.5          1.5  1.0
      basis_dep_cutoff    1e-4
  #
      radial_base         55 5.0
      radial_multiplier   1
      angular_grids       specified
        division   0.4982   50
        division   0.9113  110
        division   1.1593  194
        division   1.4959  302
  #      division   1.6697  434
  #      division   1.8319  590
  #      division   1.9752  770
  #      division   2.0131  974
  #      division   2.4015 1202
  #      outer_grid  1202
        outer_grid  302
  ################################################################################
  #
  #  Definition of "minimal" basis
  #
  ################################################################################
  #     valence basis states
      valence      4  s   2.
      valence      4  p   3.
      valence      3  d  10.
  #     ion occupancy
      ion_occ      4  s   1.
      ion_occ      4  p   2.
      ion_occ      3  d  10.
  ################################################################################
  #
  #  Suggested additional basis functions. For production calculations,
  #  uncomment them one after another (the most important basis functions are
  #  listed first).
  #
  #  Constructed for dimers: 1.75 A, 2.10 A, 2.50 A, 3.00 A, 4.00 A
  #
  ################################################################################
  #  "First tier" - improvements: -385.12 meV to -54.94 meV
       hydro 3 d 4
       hydro 2 p 1.5
       hydro 4 f 6.8
       ionic 4 s auto
  #  "Second tier" - improvements: -22.14 meV to -3.21 meV
  #     hydro 5 g 10
  #     hydro 6 h 13.6
  #     hydro 4 p 4.3
  #     hydro 4 f 15.6
  #     hydro 4 d 5.4
  #     hydro 1 s 0.6
  #  "Third tier" - improvements: -0.57 meV to -0.13 meV
  #     hydro 5 g 16.4
  #     hydro 4 f 7.4
  #     hydro 5 d 7.4
  #     ionic 4 p auto
  #     hydro 3 s 2.6
  #  "Fourth tier" - improvements: -0.30 meV and below
  #     hydro 3 p 3
  #     hydro 6 h 18.4
  #     hydro 5 d 11.2
  #     hydro 5 f 15.2
  #     hydro 5 g 13.6
  #     hydro 5 s 6.2



  -----------------------------------------------------------------------
  Completed first pass over input file control.in .
  -----------------------------------------------------------------------


  -----------------------------------------------------------------------
  Parsing geometry.in (first pass over file, find array dimensions only).
  The contents of geometry.in will be repeated verbatim below
  unless switched off by setting 'verbatim_writeout .false.' .
  in the first line of geometry.in .
  -----------------------------------------------------------------------

  lattice_vector 5.6539999999999999 0.0000000000000000 0.0000000000000000
  lattice_vector 0.0000000000000000 5.6539999999999999 0.0000000000000000
  lattice_vector 0.0000000000000000 0.0000000000000000 5.6539999999999999
  atom_frac 0.0000000000000000 0.0000000000000000 0.0000000000000000 Ga
  atom_frac 0.0000000000000000 0.5000000000000000 0.5000000000000000 Ga
  atom_frac 0.5000000000000000 0.0000000000000000 0.5000000000000000 Ga
  atom_frac 0.5000000000000000 0.5000000000000000 0.0000000000000000 Ga
  atom_frac 0.2500000000000000 0.2500000000000000 0.2500000000000000 As
  atom_frac 0.7500000000000000 0.7500000000000000 0.2500000000000000 As
  atom_frac 0.7500000000000000 0.2500000000000000 0.7500000000000000 As
  atom_frac 0.2500000000000000 0.7500000000000000 0.7500000000000000 As


  -----------------------------------------------------------------------
  Completed first pass over input file geometry.in .
  -----------------------------------------------------------------------


  Basic array size parameters:
  | Number of species                 :        2
  | Number of atoms                   :        8
  | Number of lattice vectors         :        3
  | Max. basis fn. angular momentum   :        3
  | Max. atomic/ionic basis occupied n:        4
  | Max. number of basis fn. types    :        3
  | Max. radial fns per species/type  :        8
  | Max. logarithmic grid size        :     1417
  | Max. radial integration grid size :       55
  | Max. angular integration grid size:      302
  | Max. angular grid division number :        8
  | Radial grid for Hartree potential :     1417
  | Number of spin channels           :        1

------------------------------------------------------------
          Reading file control.in.
------------------------------------------------------------
  XC: Using PBE gradient-corrected functionals.
  Found k-point grid:         8         8         8
  JSON-formatted output will be written to aims.log .
  - Only task 0 will output JSON text in this fashion.
  Scalar relativistic treatment of kinetic energy: on-site free-atom approximation to ZORA.

  Reading configuration options for species Ga                  .
  | Found nuclear charge :  31.0000
  | Found atomic mass :    69.7230000000000      amu
  | Found l_max for Hartree potential  :   4
  | Found cutoff potl. onset [A], width [A], scale factor :    3.50000    1.50000    1.00000
  | Threshold for basis-dependent cutoff potential is   0.100000E-03
  | Found data for basic radial integration grid :    54 points, outermost radius =    5.000 A
  | Found multiplier for basic radial grid :   1
  | Found angular grid specification: user-specified.
  | Specified grid contains     5 separate shells.
  | Check grid settings after all constraints further below.
  | Found free-atom valence shell :  4 s   2.000
  | Found free-atom valence shell :  4 p   1.000
  | Found free-atom valence shell :  3 d  10.000
  | Found free-ion valence shell :  4 s   1.000
  | Found free-ion valence shell :  3 p   6.000
  | Found free-ion valence shell :  3 d  10.000
  | Found hydrogenic basis function :  2 p   1.200
  | Found hydrogenic basis function :  3 d   3.800
  | Found hydrogenic basis function :  4 f   6.800
  | Found ionic basis function :  4 s , default cutoff radius.
  Species Ga                  : Missing cutoff potential type.
  Defaulting to exp(1/x)/(1-x)^2 type cutoff potential.
  Species Ga: No 'logarithmic' tag. Using default grid for free atom:
  | Default logarithmic grid data [bohr] : 0.1000E-03 0.1000E+03 0.1012E+01
  | Will include ionic basis functions of  2.0-fold positive Ga                   ion.
  Species Ga: On-site basis accuracy parameter (for Gram-Schmidt orthonormalisation) not specified.
  Using default value basis_acc =  0.1000000E-03.
  Species Ga                  : Using default innermost maximum threshold i_radial=  2 for radial functions.
  Species Ga                  : Default cutoff onset for free atom density etc. : 0.35000000E+01 AA.
  Species Ga                  : Basic radial grid will be enhanced according to radial_multiplier =   1, to contain    54 grid points.

  Reading configuration options for species As                  .
  | Found nuclear charge :  33.0000
  | Found atomic mass :    74.9216000000000      amu
  | Found l_max for Hartree potential  :   4
  | Found cutoff potl. onset [A], width [A], scale factor :    3.50000    1.50000    1.00000
  | Threshold for basis-dependent cutoff potential is   0.100000E-03
  | Found data for basic radial integration grid :    55 points, outermost radius =    5.000 A
  | Found multiplier for basic radial grid :   1
  | Found angular grid specification: user-specified.
  | Specified grid contains     5 separate shells.
  | Check grid settings after all constraints further below.
  | Found free-atom valence shell :  4 s   2.000
  | Found free-atom valence shell :  4 p   3.000
  | Found free-atom valence shell :  3 d  10.000
  | Found free-ion valence shell :  4 s   1.000
  | Found free-ion valence shell :  4 p   2.000
  | Found free-ion valence shell :  3 d  10.000
  | Found hydrogenic basis function :  3 d   4.000
  | Found hydrogenic basis function :  2 p   1.500
  | Found hydrogenic basis function :  4 f   6.800
  | Found ionic basis function :  4 s , default cutoff radius.
  Species As                  : Missing cutoff potential type.
  Defaulting to exp(1/x)/(1-x)^2 type cutoff potential.
  Species As: No 'logarithmic' tag. Using default grid for free atom:
  | Default logarithmic grid data [bohr] : 0.1000E-03 0.1000E+03 0.1012E+01
  | Will include ionic basis functions of  2.0-fold positive As                   ion.
  Species As: On-site basis accuracy parameter (for Gram-Schmidt orthonormalisation) not specified.
  Using default value basis_acc =  0.1000000E-03.
  Species As                  : Using default innermost maximum threshold i_radial=  2 for radial functions.
  Species As                  : Default cutoff onset for free atom density etc. : 0.35000000E+01 AA.
  Species As                  : Basic radial grid will be enhanced according to radial_multiplier =   1, to contain    55 grid points.

  Finished reading input file 'control.in'.

------------------------------------------------------------


------------------------------------------------------------
          Reading geometry description geometry.in.
------------------------------------------------------------
  | The smallest distance between any two atoms is         2.44825382 AA.
  | The first atom of this pair is atom number                      1 .
  | The second atom of this pair is atom number                     6 .
  | Wigner-Seitz cell of the first atom image           0     0     0 .
  | (The Wigner-Seitz cell of the second atom is 0 0 0  by definition.)

  Symmetry information by spglib:
  | Precision set to  0.1E-04
  | Number of Operations  : 96
  | Space group           : 216
  | International         : F-43m 25000
  | Schoenflies           : Td^2
  Input structure read successfully.
  The structure contains        8 atoms,  and a total of        256.000 electrons.

  Input geometry:
  | Unit cell:
  |        5.65400000        0.00000000        0.00000000
  |        0.00000000        5.65400000        0.00000000
  |        0.00000000        0.00000000        5.65400000
  | Atomic structure:
  |       Atom                x [A]            y [A]            z [A]
  |    1: Species Ga            0.00000000        0.00000000        0.00000000
  |    2: Species Ga            0.00000000        2.82700000        2.82700000
  |    3: Species Ga            2.82700000        0.00000000        2.82700000
  |    4: Species Ga            2.82700000        2.82700000        0.00000000
  |    5: Species As            1.41350000        1.41350000        1.41350000
  |    6: Species As            4.24050000        4.24050000        1.41350000
  |    7: Species As            4.24050000        1.41350000        4.24050000
  |    8: Species As            1.41350000        4.24050000        4.24050000

  Lattice parameters for 3D lattice (in Angstroms) :     5.654000    5.654000    5.654000
  Angle(s) between unit vectors (in degrees)       :    90.000000   90.000000   90.000000


  Quantities derived from the lattice vectors (in Angstrom^-1):
  | Reciprocal lattice vector 1:  1.111281  0.000000  0.000000
  | Reciprocal lattice vector 2:  0.000000  1.111281  0.000000
  | Reciprocal lattice vector 3:  0.000000  0.000000  1.111281
  | Unit cell volume                               :   0.180745E+03  Angstrom^3

  Fractional coordinates:
                         L1                L2                L3
       atom_frac         0.00000000        0.00000000        0.00000000  Ga
       atom_frac         0.00000000        0.50000000        0.50000000  Ga
       atom_frac         0.50000000        0.00000000        0.50000000  Ga
       atom_frac         0.50000000        0.50000000        0.00000000  Ga
       atom_frac         0.25000000        0.25000000        0.25000000  As
       atom_frac         0.75000000        0.75000000        0.25000000  As
       atom_frac         0.75000000        0.25000000        0.75000000  As
       atom_frac         0.25000000        0.75000000        0.75000000  As


  Finished reading input file 'geometry.in'.



  Consistency checks for stacksize environment parameter are next.

  | Maximum stacksize for task 0: unlimited
  | Maximum stacksize for task 1: unlimited
  | Maximum stacksize for task 2: unlimited
  | Maximum stacksize for task 3: unlimited
  | Maximum stacksize for task 4: unlimited
  | Maximum stacksize for task 5: unlimited
  | Maximum stacksize for task 6: unlimited
  | Maximum stacksize for task 7: unlimited
  | Current stacksize for task 0: unlimited
  | Current stacksize for task 1: unlimited
  | Current stacksize for task 2: unlimited
  | Current stacksize for task 3: unlimited
  | Current stacksize for task 4: unlimited
  | Current stacksize for task 5: unlimited
  | Current stacksize for task 6: unlimited
  | Current stacksize for task 7: unlimited

  Consistency checks for the contents of control.in are next.

  MPI_IN_PLACE appears to work with this MPI implementation.
  | Keeping use_mpi_in_place .true. (see manual).
  Target number of points in a grid batch is not set. Defaulting to  100
  Method for grid partitioning is not set. Defaulting to parallel hash+maxmin partitioning.
  Batch size limit is not set. Defaulting to    200
  By default, will store active basis functions for each batch.
  If in need of memory, prune_basis_once .false. can be used to disable this option.
  communication_type for Hartree potential was not specified.
  Defaulting to calc_hartree .
  Defaulting to Pulay charge density mixer.
  Pulay mixer: Number of relevant iterations not set.
  Defaulting to    8 iterations.
  Pulay mixer: Number of initial linear mixing iterations not set.
  Defaulting to    0 iterations.
  Work space size for distributed Hartree potential not set.
  Defaulting to   0.200000E+03 MB.
  Mixing parameter for charge density mixing has not been set.
  Using default: charge_mix_param =     0.0500.
  The mixing parameter will be adjusted in iteration number     2 of the first full s.c.f. cycle only.
  Algorithm-dependent basis array size parameters:
  | n_max_pulay                         :        8
  Maximum number of self-consistency iterations not provided.
  Presetting  1000 iterations.
  Presetting      1001 iterations before the initial mixing cycle
  is restarted anyway using the sc_init_iter criterion / keyword.
  Presetting a factor      1.000 between actual scf density residual
  and density convergence criterion sc_accuracy_rho below which sc_init_iter
  takes no effect.
 * No s.c.f. convergence criteria (sc_accuracy_*) were provided in control.in.
 * The run will proceed with a reasonable default guess, but please check whether.
 * the s.c.f. cycles seem to take too much or too little time.
  Calculation of forces was not defined in control.in. No forces will be calculated.
  Geometry relaxation not requested: no relaxation will be performed.
 * Notice: The s.c.f. convergence criterion sc_accuracy_rho was not provided.
 * We used to stop in this case, and ask the user to provide reasonable
 * scf convergence criteria. However, this led some users to employ criteria
 * that led to extremely long run times, e.g., for simple relaxation.
 * We now preset a default value for sc_accuracy_rho if it is not set.
 * You may still wish to check if this setting is too tight or too loose for your needs.
 * Based on n_atoms and forces and force-correction status, FHI-aims chose sc_accuracy_rho =  0.115470E-05 .
  No accuracy limit for integral partition fn. given. Defaulting to  0.1000E-14.
  No threshold value for u(r) in integrations given. Defaulting to  0.1000E-05.
  No occupation type (smearing scheme) given. Defaulting to Gaussian broadening, width =  0.1000E-01 eV.
  The width will be adjusted in iteration number     2 of the first full s.c.f. cycle only.
  S.C.F. convergence parameters will be adjusted in iteration number     2 of the first full s.c.f. cycle only.
  No accuracy for occupation numbers given. Defaulting to  0.1000E-12.
  No threshold value for occupation numbers given. Defaulting to  0.0000E+00.
  No accuracy for fermi level given. Defaulting to  0.1000E-19.
  Maximum # of iterations to find E_F not set. Defaulting to  200.
  Preferred method for the eigenvalue solver ('KS_method') not specified in 'control.in'.
  Defaulting to serial version, LAPACK (via ELSI), since more k-points than CPUs available.
  Will not use alltoall communication since running on < 1024 CPUs.
  Threshold for basis singularities not set.
  Default threshold for basis singularities:  0.1000E-04
  partition_type (choice of integration weights) for integrals was not specified.
  | Using a version of the partition function of Stratmann and coworkers ('stratmann_sparse').
  | At each grid point, the set of atoms used to build the partition table is smoothly restricted to
  | only those atoms whose free-atom density would be non-zero at that grid point.
  Partitioning for Hartree potential was not defined. Using partition_type for integrals.
  | Adjusted default value of keyword multip_moments_threshold to:       0.10000000E-11
  | This value may affect high angular momentum components of the Hartree potential in periodic systems.
  Spin handling was not defined in control.in. Defaulting to unpolarized case.
  Angular momentum expansion for Kerker preconditioner not set explicitly.
  | Using default value of   0
  No explicit requirement for turning off preconditioner.
  | By default, it will be turned off when the charge convergence reaches
  | sc_accuracy_rho  =   0.115470E-05
  No special mixing parameter while Kerker preconditioner is on.
  Using default: charge_mix_param =     0.0500.
  No q(lm)/r^(l+1) cutoff set for long-range Hartree potential.
  | Using default value of  0.100000E-09 .
  | Verify using the multipole_threshold keyword.
  Defaulting to new monopole extrapolation.
  Density update method: automatic selection selected.
  Using density matrix based charge density update.
  Using density matrix based charge density update.
  Using packed matrix style: index .
  Defaulting to use time-reversal symmetry for k-point grid.
  Charge integration errors on the 3D integration grid will be compensated
  by explicit normalization and distribution of residual charges.
  Use the "compensate_multipole_errors" flag to change this behaviour.
  Set 'collect_eigenvectors' to be '.true.' for all serial calculations. This is mandatory.
  Set 'collect_eigenvectors' to be '.true.' for KS_method lapack_fast and serial.

  Consistency checks for the contents of geometry.in are next.


  Range separation radius for Ewald summation (hartree_convergence_parameter):      4.06430316 bohr.
  Number of empty states per atom not set in control.in - providing a guess from actual geometry.
  | Total number of empty states used during s.c.f. cycle:       44
  If you use a very high smearing, use empty_states (per atom!) in control.in to increase this value.

  Structure-dependent array size parameters:
  | Maximum number of distinct radial functions  :       24
  | Maximum number of basis functions            :      272
  | Number of Kohn-Sham states (occupied + empty):      172
------------------------------------------------------------

------------------------------------------------------------
          Preparing all fixed parts of the calculation.
------------------------------------------------------------
  Determining machine precision:
    2.225073858507201E-308
  Setting up grids for atomic and cluster calculations.

  Creating wave function, potential, and density for free atoms.
  Runtime choices for atomic solver:
  | atomic solver xc        : PBE
  | compute density gradient: 1
  | compute kinetic density : F

  Species: Ga

  List of occupied orbitals and eigenvalues:
    n    l              occ      energy [Ha]    energy [eV]
    1    0           2.0000      -380.489758    -10353.6531
    2    0           2.0000       -46.460587     -1264.2569
    3    0           2.0000        -5.427793      -147.6978
    4    0           2.0000        -0.316119        -8.6020
    2    1           6.0000       -40.433986     -1100.2647
    3    1           6.0000        -3.616323       -98.4052
    4    1           1.0000        -0.078625        -2.1395
    3    2          10.0000        -0.688008       -18.7217


  Species: As

  List of occupied orbitals and eigenvalues:
    n    l              occ      energy [Ha]    energy [eV]
    1    0           2.0000      -436.643669    -11881.6788
    2    0           2.0000       -54.749877     -1489.8200
    3    0           2.0000        -6.987029      -190.1267
    4    0           2.0000        -0.526374       -14.3234
    2    1           6.0000       -47.996715     -1306.0571
    3    1           6.0000        -4.904622      -133.4616
    4    1           3.0000        -0.184722        -5.0265
    3    2          10.0000        -1.486454       -40.4485


  Adding cutoff potential to free-atom effective potential.
  Creating fixed part of basis set: Ionic, confined, hydrogenic.

  Ga                   ion:

  List of free ionic orbitals and eigenvalues:
    n    l      energy [Ha]    energy [eV]
    1    0      -381.269939    -10374.8829
    2    0       -47.220675     -1284.9399
    3    0        -6.191291      -168.4736
    4    0        -0.957864       -26.0648
    2    1       -41.195167     -1120.9775
    3    1        -4.379935      -119.1841
    3    2        -1.446562       -39.3629


  List of ionic basis orbitals and eigenvalues:
    n    l      energy [Ha]    energy [eV]    outer radius [A]
    4    0        -0.957837       -26.0641       4.370145


  Ga                   hydrogenic:

  List of hydrogenic basis orbitals:
    n    l      effective z      eigenvalue [eV]  inner max. [A]     outer max. [A]     outer radius [A]
    2    1         1.200000        -4.5108           1.643450           1.643450           4.589156
    3    2         3.800000       -21.8139           1.255894           1.255894           4.589156
    4    3         6.800000       -39.3178           1.240634           1.240634           4.533395


  As                   ion:

  List of free ionic orbitals and eigenvalues:
    n    l      energy [Ha]    energy [eV]
    1    0      -437.521171    -11905.5568
    2    0       -55.607242     -1513.1500
    3    0        -7.840974      -213.3638
    4    0        -1.261898       -34.3380
    2    1       -48.854908     -1329.4097
    3    1        -5.758049      -156.6845
    4    1        -0.860696       -23.4207
    3    2        -2.335871       -63.5623


  List of ionic basis orbitals and eigenvalues:
    n    l      energy [Ha]    energy [eV]    outer radius [A]
    4    0        -1.261879       -34.3375       3.909368


  As                   hydrogenic:

  List of hydrogenic basis orbitals:
    n    l      effective z      eigenvalue [eV]  inner max. [A]     outer max. [A]     outer radius [A]
    3    2         4.000000       -24.1792           1.194291           1.194291           4.582756
    2    1         1.500000        -7.5079           1.382996           1.382996           4.582756
    4    3         6.800000       -39.3178           1.238904           1.238904           4.527073

  Creating atomic-like basis functions for current effective potential.

  Species Ga                  :

  List of atomic basis orbitals and eigenvalues:
    n    l      energy [Ha]    energy [eV]    outer radius [A]
    1    0      -380.489758    -10353.6531       0.339519
    2    0       -46.460587     -1264.2569       0.983486
    3    0        -5.427793      -147.6978       2.780058
    4    0        -0.316119        -8.6020       4.533395
    2    1       -40.433986     -1100.2647       1.020225
    3    1        -3.616323       -98.4052       3.258922
    4    1        -0.078625        -2.1395       4.589156
    3    2        -0.688008       -18.7217       4.370145


  Species As                  :

  List of atomic basis orbitals and eigenvalues:
    n    l      energy [Ha]    energy [eV]    outer radius [A]
    1    0      -436.643669    -11881.6788       0.318942
    2    0       -54.749877     -1489.8200       0.912655
    3    0        -6.987029      -190.1267       2.486936
    4    0        -0.526374       -14.3234       4.527073
    2    1       -47.996715     -1306.0571       0.946748
    3    1        -4.904622      -133.4616       2.844895
    4    1        -0.184722        -5.0265       4.582756
    3    2        -1.486454       -40.4485       4.155782

  Assembling full basis from fixed parts.
  | Species Ga :   atomic orbital   1 s accepted.
  | Species Ga :   atomic orbital   2 s accepted.
  | Species Ga :   atomic orbital   3 s accepted.
  | Species Ga :    ionic orbital   4 s accepted.
  | Species Ga :   atomic orbital   4 s accepted.
  | Species Ga :   atomic orbital   2 p accepted.
  | Species Ga :   atomic orbital   3 p accepted.
  | Species Ga :   atomic orbital   4 p accepted.
  | Species Ga :    hydro orbital   2 p accepted.
  | Species Ga :   atomic orbital   3 d accepted.
  | Species Ga :    hydro orbital   3 d accepted.
  | Species Ga :    hydro orbital   4 f accepted.
  | Species As :   atomic orbital   1 s accepted.
  | Species As :   atomic orbital   2 s accepted.
  | Species As :   atomic orbital   3 s accepted.
  | Species As :    ionic orbital   4 s accepted.
  | Species As :   atomic orbital   4 s accepted.
  | Species As :   atomic orbital   2 p accepted.
  | Species As :   atomic orbital   3 p accepted.
  | Species As :   atomic orbital   4 p accepted.
  | Species As :    hydro orbital   2 p accepted.
  | Species As :   atomic orbital   3 d accepted.
  | Species As :    hydro orbital   3 d accepted.
  | Species As :    hydro orbital   4 f accepted.

  Basis size parameters after reduction:
  | Total number of radial functions:       24
  | Total number of basis functions :      272

  Per-task memory consumption for arrays in subroutine allocate_ext:
  |           8.713696MB.
  Testing on-site integration grid accuracy.
  |  Species  Function  <phi|h_atom|phi> (log., in eV)  <phi|h_atom|phi> (rad., in eV)
           1        1             -10353.6531083681             -10353.6426064854
           1        2              -1264.2568837927              -1264.2567574771
           1        3               -147.6977694494               -147.6977664834
           1        4                 -8.2157067915                 -8.2156220906
           1        5                  5.3691127490                  5.2869956537 ***
           1        6              -1100.2647267038              -1100.2647251320
           1        7                -98.4051589771                -98.4051585337
           1        8                 -2.1632502565                 -2.1936630377 ***
           1        9                  7.2154195323                  7.0101703907 ***
           1       10                -18.7216618083                -18.7216626724
           1       11                  9.0922871809                  9.0865043987
           1       12                 23.0608801050                 23.0598690183
           2       13             -11881.6787704378             -11881.6655406426
           2       14              -1489.8199667950              -1489.8198039400
           2       15               -190.1267359814               -190.1267316790
           2       16                -14.0698329783                -14.0699220836
           2       17                  6.0555617388                  6.0761392932
           2       18              -1306.0570746169              -1306.0570739251
           2       19               -133.4615612685               -133.4615604617
           2       20                 -5.0319582430                 -5.0383328047
           2       21                  6.3445176426                  6.2354835442 ***
           2       22                -40.4484584789                -40.4484582371
           2       23                  7.3305608433                  7.3275160176
           2       24                 21.2513110115                 21.2503468254
 * Note: Onsite integrals marked "***" above are less accurate than
 * onsite_accuracy_threshold =    0.03000 eV. Usually, this is harmless.
 * However, one integral did have a negative value. This integral could be important.
 * When in doubt, tighten the "radial" and/or "radial_multiplier" flags to check.

  Preparing densities etc. for the partition functions (integrals / Hartree potential).

  Preparations completed.
  max(cpu_time)          :      0.342 s.
  Wall clock time (cpu1) :      0.342 s.
------------------------------------------------------------

  Initializing index lists of integration centers etc. from given atomic structure:
  Mapping all atomic coordinates to central unit cell.

  Initializing the k-points
  Using symmetry for reducing the k-points
  | k-points reduced from:      512 to      260
  | Number of k-points                             :       260
  The eigenvectors in the calculations are COMPLEX.
  | K-points in task   0:        32
  | K-points in task   1:        33
  | K-points in task   2:        33
  | K-points in task   3:        33
  | K-points in task   4:        33
  | K-points in task   5:        32
  | K-points in task   6:        32
  | K-points in task   7:        32
  | Number of basis functions in the Hamiltonian integrals :      3652
  | Number of basis functions in a single unit cell        :       272
  | Number of centers in hartree potential         :       990
  | Number of centers in hartree multipole         :       486
  | Number of centers in electron density summation:       312
  | Number of centers in basis integrals           :       324
  | Number of centers in integrals                 :       143
  | Number of centers in hamiltonian               :       312
  | Consuming        308 KiB for k_phase.
  | Number of super-cells (origin) [n_cells]                     :         729
  | Number of super-cells (after PM_index) [n_cells]             :          76
  | Number of super-cells in hamiltonian [n_cells_in_hamiltonian]:          76
  | Size of matrix packed + index [n_hamiltonian_matrix_size] :      499505

------------------------------------------------------------
          Begin self-consistency loop: Initialization.

          Date     :  20221215, Time     :  122456.200
------------------------------------------------------------
  | Estimated reciprocal-space cutoff momentum G_max:         2.29200966 bohr^-1 .
  | Reciprocal lattice points for long-range Hartree potential:     250
  Partitioning the integration grid into batches with parallel hashing+maxmin method.
  | Number of batches:      768
  | Maximal batch size:      91
  | Minimal batch size:      67
  | Average batch size:      75.823
  | Standard deviation of batch sizes:       8.802

  Integration load balanced across     8 MPI tasks.
  Work distribution over tasks is as follows:
  Task     0 has       7251 integration points.
  Task     1 has       7311 integration points.
  Task     2 has       7247 integration points.
  Task     3 has       7318 integration points.
  Task     4 has       7251 integration points.
  Task     5 has       7271 integration points.
  Task     6 has       7273 integration points.
  Task     7 has       7310 integration points.
  Initializing partition tables, free-atom densities, potentials, etc. across the integration grid (initialize_grid_storage).
  | initialize_grid_storage: Actual outermost partition radius vs. multipole_radius_free
  | (-- VB: in principle, multipole_radius_free should be larger, hence this output)
  | Species        1: Confinement radius =              4.999999999999999 AA, multipole_radius_free =              5.060654947817020 AA.
  | Species        1: outer_partition_radius set to              5.060654947817020 AA .
  | Species        2: Confinement radius =              4.999999999999999 AA, multipole_radius_free =              5.053598046169615 AA.
  | Species        2: outer_partition_radius set to              5.053598046169615 AA .
  | The sparse table of interatomic distances needs        402.34 kbyte instead of       839.81 kbyte of memory.
  | Net number of integration points:    58232
  | of which are non-zero points    :    52344
  | Numerical average free-atom electrostatic potential    :    -14.54648751 eV
  Renormalizing the initial density to the exact electron count on the 3D integration grid.
  | Initial density: Formal number of electrons (from input files) :     256.0000000000
  | Integrated number of electrons on 3D grid     :     256.0144415130
  | Charge integration error                      :       0.0144415130
  | Normalization factor for density and gradient :       0.9999435910
  Renormalizing the free-atom superposition density to the exact electron count on the 3D integration grid.
  | Formal number of electrons (from input files) :     256.0000000000
  | Integrated number of electrons on 3D grid     :     256.0144415130
  | Charge integration error                      :       0.0144415130
  | Normalization factor for density and gradient :       0.9999435910
  Obtaining max. number of non-zero basis functions in each batch (get_n_compute_maxes).
  | Maximal number of non-zero basis functions:      761 in task     0
  | Maximal number of non-zero basis functions:      761 in task     1
  | Maximal number of non-zero basis functions:      762 in task     2
  | Maximal number of non-zero basis functions:      772 in task     3
  | Maximal number of non-zero basis functions:      729 in task     4
  | Maximal number of non-zero basis functions:      738 in task     5
  | Maximal number of non-zero basis functions:      731 in task     6
  | Maximal number of non-zero basis functions:      738 in task     7
  Allocating       22.844 MB for KS_eigenvector_complex
  Integrating Hamiltonian matrix: batch-based integration.
  Time summed over all CPUs for integration: real work        9.250 s, elapsed       10.331 s
  Integrating overlap matrix.
  Time summed over all CPUs for integration: real work        7.139 s, elapsed        7.954 s
  Decreasing sparse matrix size:
  | Tolerance:  0.1000E-12
  Hamiltonian matrix
  | Array has   410345 nonzero elements out of   499505 elements
  | Sparsity factor is 0.178
  Overlap matrix
  | Array has   377672 nonzero elements out of   499505 elements
  | Sparsity factor is 0.244
  New size of hamiltonian matrix:      414049

  Updating Kohn-Sham eigenvalues and eigenvectors using ELSI and the (modified) LAPACK eigensolver.
  Singularity check in k-point 8, task 0 (analysis for other k-points/tasks may follow below):
  Overlap matrix is not singular
  | Lowest and highest eigenvalues :  0.7185E-03,  0.6255E+01
  Finished singularity check of overlap matrix
  | Time :     0.020 s
  Starting LAPACK eigensolver
  Finished Cholesky decomposition
  | Time :     0.005 s
  Finished transformation to standard eigenproblem
  | Time :     0.012 s
  Finished solving standard eigenproblem
  | Time :     0.024 s
  Finished back-transformation of eigenvectors
  | Time :     0.003 s

  Obtaining occupation numbers and electronic chemical potential using ELSI.
  | Note that, for insulating systems, the printed 'chemical potential' value is not uniquely defined.
  | It can be anywhere in the energy gap, as long as it correctly separates occupied and unoccupied states.
  | In systems with a gap, the physically relevant chemical potential is the VBM or HOMO.

  | Chemical potential (Fermi level):    -5.49649136 eV
  Writing Kohn-Sham eigenvalues.
  K-point:       1 at    0.000000    0.000000    0.000000 (in units of recip. lattice)

  State    Occupation    Eigenvalue [Ha]    Eigenvalue [eV]
      1       2.00000        -436.660648       -11882.14078
      2       2.00000        -436.660648       -11882.14078
      3       2.00000        -436.660648       -11882.14078
      4       2.00000        -436.660648       -11882.14078
      5       2.00000        -380.502384       -10353.99667
      6       2.00000        -380.502384       -10353.99667
      7       2.00000        -380.502384       -10353.99667
      8       2.00000        -380.502384       -10353.99667
      9       2.00000         -54.767535        -1490.30045
     10       2.00000         -54.767535        -1490.30045
     11       2.00000         -54.767535        -1490.30045
     12       2.00000         -54.767535        -1490.30045
     13       2.00000         -48.014318        -1306.53608
     14       2.00000         -48.014318        -1306.53608
     15       2.00000         -48.014318        -1306.53608
     16       2.00000         -48.014318        -1306.53608
     17       2.00000         -48.014318        -1306.53608
     18       2.00000         -48.014318        -1306.53608
     19       2.00000         -48.014318        -1306.53607
     20       2.00000         -48.014318        -1306.53607
     21       2.00000         -48.014318        -1306.53607
     22       2.00000         -48.014318        -1306.53607
     23       2.00000         -48.014318        -1306.53607
     24       2.00000         -48.014318        -1306.53607
     25       2.00000         -46.473822        -1264.61703
     26       2.00000         -46.473822        -1264.61703
     27       2.00000         -46.473822        -1264.61703
     28       2.00000         -46.473822        -1264.61703
     29       2.00000         -40.447158        -1100.62316
     30       2.00000         -40.447158        -1100.62316
     31       2.00000         -40.447158        -1100.62316
     32       2.00000         -40.447158        -1100.62316
     33       2.00000         -40.447158        -1100.62316
     34       2.00000         -40.447158        -1100.62316
     35       2.00000         -40.447157        -1100.62315
     36       2.00000         -40.447157        -1100.62315
     37       2.00000         -40.447157        -1100.62315
     38       2.00000         -40.447157        -1100.62315
     39       2.00000         -40.447157        -1100.62315
     40       2.00000         -40.447157        -1100.62315
     41       2.00000          -7.007517         -190.68425
     42       2.00000          -7.007517         -190.68425
     43       2.00000          -7.007517         -190.68425
     44       2.00000          -7.007517         -190.68425
     45       2.00000          -5.444257         -148.14578
     46       2.00000          -5.444257         -148.14578
     47       2.00000          -5.444257         -148.14578
     48       2.00000          -5.444257         -148.14578
     49       2.00000          -4.925441         -134.02808
     50       2.00000          -4.925441         -134.02808
     51       2.00000          -4.925441         -134.02808
     52       2.00000          -4.925441         -134.02808
     53       2.00000          -4.925441         -134.02808
     54       2.00000          -4.925441         -134.02808
     55       2.00000          -4.925441         -134.02808
     56       2.00000          -4.925441         -134.02808
     57       2.00000          -4.925441         -134.02808
     58       2.00000          -4.925441         -134.02808
     59       2.00000          -4.925441         -134.02808
     60       2.00000          -4.925441         -134.02808
     61       2.00000          -3.633308          -98.86734
     62       2.00000          -3.633308          -98.86734
     63       2.00000          -3.633308          -98.86734
     64       2.00000          -3.633308          -98.86733
     65       2.00000          -3.633308          -98.86733
     66       2.00000          -3.633308          -98.86733
     67       2.00000          -3.633308          -98.86733
     68       2.00000          -3.633308          -98.86733
     69       2.00000          -3.633308          -98.86733
     70       2.00000          -3.633308          -98.86733
     71       2.00000          -3.633308          -98.86733
     72       2.00000          -3.633308          -98.86733
     73       2.00000          -1.509037          -41.06297
     74       2.00000          -1.509037          -41.06297
     75       2.00000          -1.509037          -41.06297
     76       2.00000          -1.509005          -41.06211
     77       2.00000          -1.509005          -41.06211
     78       2.00000          -1.509005          -41.06211
     79       2.00000          -1.508942          -41.06039
     80       2.00000          -1.508942          -41.06039
     81       2.00000          -1.508942          -41.06039
     82       2.00000          -1.508942          -41.06039
     83       2.00000          -1.508942          -41.06039
     84       2.00000          -1.508942          -41.06039
     85       2.00000          -1.508478          -41.04777
     86       2.00000          -1.508478          -41.04777
     87       2.00000          -1.508478          -41.04777
     88       2.00000          -1.508459          -41.04725
     89       2.00000          -1.508459          -41.04725
     90       2.00000          -1.508425          -41.04634
     91       2.00000          -1.508425          -41.04634
     92       2.00000          -1.508425          -41.04634
     93       2.00000          -0.718760          -19.55845
     94       2.00000          -0.718760          -19.55845
     95       2.00000          -0.718760          -19.55845
     96       2.00000          -0.712224          -19.38060
     97       2.00000          -0.712224          -19.38060
     98       2.00000          -0.712224          -19.38060
     99       2.00000          -0.710107          -19.32301
    100       2.00000          -0.710107          -19.32301
    101       2.00000          -0.710107          -19.32301
    102       2.00000          -0.710107          -19.32301
    103       2.00000          -0.710107          -19.32301
    104       2.00000          -0.710107          -19.32301
    105       2.00000          -0.709647          -19.31048
    106       2.00000          -0.709647          -19.31048
    107       2.00000          -0.709647          -19.31048
    108       2.00000          -0.708492          -19.27906
    109       2.00000          -0.708492          -19.27906
    110       2.00000          -0.707990          -19.26540
    111       2.00000          -0.707990          -19.26540
    112       2.00000          -0.707990          -19.26540
    113       2.00000          -0.673574          -18.32887
    114       2.00000          -0.584708          -15.91071
    115       2.00000          -0.584708          -15.91071
    116       2.00000          -0.584708          -15.91071
    117       2.00000          -0.446287          -12.14408
    118       2.00000          -0.446287          -12.14408
    119       2.00000          -0.446287          -12.14408
    120       2.00000          -0.300574           -8.17905
    121       2.00000          -0.300574           -8.17905
    122       2.00000          -0.300574           -8.17905
    123       2.00000          -0.300574           -8.17905
    124       2.00000          -0.300574           -8.17905
    125       2.00000          -0.300574           -8.17905
    126       2.00000          -0.206726           -5.62529
    127       2.00000          -0.206726           -5.62529
    128       2.00000          -0.206726           -5.62529
    129       0.00000          -0.180719           -4.91762
    130       0.00000          -0.140582           -3.82544
    131       0.00000          -0.140582           -3.82544
    132       0.00000          -0.140582           -3.82544
    133       0.00000          -0.135131           -3.67711
    134       0.00000          -0.135131           -3.67711
    135       0.00000          -0.135131           -3.67711
    136       0.00000          -0.055475           -1.50955
    137       0.00000          -0.055475           -1.50955
    138       0.00000          -0.055475           -1.50955
    139       0.00000           0.105889            2.88138
    140       0.00000           0.179234            4.87721
    141       0.00000           0.179234            4.87721
    142       0.00000           0.179234            4.87721
    143       0.00000           0.179234            4.87721
    144       0.00000           0.179234            4.87721
    145       0.00000           0.179234            4.87721
    146       0.00000           0.192246            5.23127
    147       0.00000           0.192246            5.23127
    148       0.00000           0.207267            5.64003
    149       0.00000           0.207267            5.64003
    150       0.00000           0.207267            5.64003
    151       0.00000           0.281848            7.66947
    152       0.00000           0.281848            7.66947
    153       0.00000           0.281848            7.66947
    154       0.00000           0.301007            8.19083
    155       0.00000           0.301007            8.19083
    156       0.00000           0.301007            8.19083
    157       0.00000           0.301007            8.19083
    158       0.00000           0.301007            8.19083
    159       0.00000           0.301007            8.19083
    160       0.00000           0.310900            8.46002
    161       0.00000           0.310900            8.46002
    162       0.00000           0.310900            8.46002
    163       0.00000           0.317584            8.64191
    164       0.00000           0.317584            8.64191
    165       0.00000           0.317584            8.64191
    166       0.00000           0.405527           11.03494
    167       0.00000           0.405527           11.03494
    168       0.00000           0.405527           11.03494
    169       0.00000           0.563175           15.32476
    170       0.00000           0.563175           15.32476
    171       0.00000           0.563175           15.32476
    172       0.00000           0.625392           17.01779

  What follows are estimated values for band gap, HOMO, LUMO, etc.
  | They are estimated on a discrete k-point grid and not necessarily exact.
  | For converged numbers, create a DOS and/or band structure plot on a denser k-grid.

  Highest occupied state (VBM) at     -5.62529344 eV (relative to internal zero)
  | Occupation number:      2.00000000
  | K-point:       1 at    0.000000    0.000000    0.000000 (in units of recip. lattice)

  Lowest unoccupied state (CBM) at    -4.91761980 eV (relative to internal zero)
  | Occupation number:      0.00000000
  | K-point:       1 at    0.000000    0.000000    0.000000 (in units of recip. lattice)

  ESTIMATED overall HOMO-LUMO gap:      0.70767364 eV between HOMO at k-point 1 and LUMO at k-point 1
  | This appears to be a direct band gap.
  The gap value is above 0.2 eV. Unless you are using a very sparse k-point grid,
  this system is most likely an insulator or a semiconductor.
  Calculating total energy contributions from superposition of free atom densities.

  Total energy components:
  | Sum of eigenvalues            :       -9876.82723695 Ha     -268762.14358464 eV
  | XC energy correction          :        -639.50317541 Ha      -17401.76679515 eV
  | XC potential correction       :         831.75994733 Ha       22633.33973861 eV
  | Free-atom electrostatic energy:       -7231.46742797 Ha     -196778.24068160 eV
  | Hartree energy correction     :           0.00000000 Ha           0.00000000 eV
  | Entropy correction            :          -0.00000000 Ha          -0.00000000 eV
  | ---------------------------
  | Total energy                  :      -16916.03789299 Ha     -460308.81132278 eV
  | Total energy, T -> 0          :      -16916.03789299 Ha     -460308.81132278 eV  <-- do not rely on this value for anything but (periodic) metals
  | Electronic free energy        :      -16916.03789299 Ha     -460308.81132278 eV

  Derived energy quantities:
  | Kinetic energy                :       17226.06331686 Ha      468745.03233645 eV
  | Electrostatic energy          :      -33502.59803444 Ha     -911652.07686408 eV
  | Energy correction for multipole
  | error in Hartree potential    :           0.00000000 Ha           0.00000000 eV
  | Sum of eigenvalues per atom                           :      -33595.26794808 eV
  | Total energy (T->0) per atom                          :      -57538.60141535 eV  <-- do not rely on this value for anything but (periodic) metals
  | Electronic free energy per atom                       :      -57538.60141535 eV
  Initialize hartree_potential_storage
  Max. number of atoms included in rho_multipole:            8

  End scf initialization - timings             :  max(cpu_time)    wall_clock(cpu1)
  | Time for scf. initialization                :        5.016 s           5.021 s
  | Boundary condition initialization           :        0.082 s           0.082 s
  | Integration                                 :        2.303 s           2.304 s
  | Solution of K.-S. eqns.                     :        2.278 s           2.283 s
  | Grid partitioning                           :        0.075 s           0.075 s
  | Preloading free-atom quantities on grid     :        0.270 s           0.270 s
  | Free-atom superposition energy              :        0.048 s           0.047 s
  | Total energy evaluation                     :        0.002 s           0.003 s

  Partial memory accounting:
  | Current value for overall tracked memory usage:
  |   Minimum:       30.742 MB (on task 0)
  |   Maximum:       31.456 MB (on task 1)
  |   Average:       31.099 MB
  | Peak value for overall tracked memory usage:
  |   Minimum:       37.988 MB (on task 6 after allocating wave)
  |   Maximum:       39.258 MB (on task 3 after allocating wave)
  |   Average:       38.588 MB
  | Largest tracked array allocation so far:
  |   Minimum:       22.844 MB (KS_eigenvector_complex on task 0)
  |   Maximum:       23.558 MB (KS_eigenvector_complex on task 1)
  |   Average:       23.201 MB
  Note:  These values currently only include a subset of arrays which are explicitly tracked.
  The "true" memory usage will be greater.
------------------------------------------------------------
  Evaluating new KS density using the density matrix
  Evaluating density matrix
  Time summed over all CPUs for getting density from density matrix: real work       19.179 s, elapsed       21.274 s
  Integration grid: deviation in total charge (<rho> - N_e) =  -1.421085E-13

  Time for density update prior                :  max(cpu_time)    wall_clock(cpu1)
  | self-consistency iterative process          :        3.184 s           3.175 s

------------------------------------------------------------
          Begin self-consistency iteration #    1

  Date     :  20221215, Time     :  122504.406
------------------------------------------------------------
  Pulay mixing of updated and previous charge densities.
  Renormalizing the density to the exact electron count on the 3D integration grid.
  | Formal number of electrons (from input files) :     256.0000000000
  | Integrated number of electrons on 3D grid     :     255.9991429009
  | Charge integration error                      :      -0.0008570991
  | Normalization factor for density and gradient :       1.0000033481

  Evaluating partitioned Hartree potential by multipole expansion.
  | Original multipole sum: apparent total charge =  -0.132254E-12
  | Sum of charges compensated after spline to logarithmic grids =  -0.172301E-05
  | Analytical far-field extrapolation by fixed multipoles:
  | Hartree multipole sum: apparent total charge =  -0.132127E-12
  Summing up the Hartree potential.
  Time summed over all CPUs for potential: real work        3.372 s, elapsed        4.111 s
  | RMS charge density error from multipole expansion :   0.752676E-03
  | Average real-space part of the electrostatic potential :      0.01093839 eV

  Integrating Hamiltonian matrix: batch-based integration.
  Time summed over all CPUs for integration: real work        9.219 s, elapsed       10.319 s

  Updating Kohn-Sham eigenvalues and eigenvectors using ELSI and the (modified) LAPACK eigensolver.
  Starting LAPACK eigensolver
  Finished Cholesky decomposition
  | Time :     0.004 s
  Finished transformation to standard eigenproblem
  | Time :     0.011 s
  Finished solving standard eigenproblem
  | Time :     0.027 s
  Finished back-transformation of eigenvectors
  | Time :     0.003 s

  Obtaining occupation numbers and electronic chemical potential using ELSI.
  | Note that, for insulating systems, the printed 'chemical potential' value is not uniquely defined.
  | It can be anywhere in the energy gap, as long as it correctly separates occupied and unoccupied states.
  | In systems with a gap, the physically relevant chemical potential is the VBM or HOMO.

  | Chemical potential (Fermi level):    -5.48596748 eV
  Writing Kohn-Sham eigenvalues.
  K-point:       1 at    0.000000    0.000000    0.000000 (in units of recip. lattice)

  State    Occupation    Eigenvalue [Ha]    Eigenvalue [eV]
      1       2.00000        -436.656991       -11882.04127
      2       2.00000        -436.656991       -11882.04127
      3       2.00000        -436.656991       -11882.04127
      4       2.00000        -436.656991       -11882.04127
      5       2.00000        -380.505523       -10354.08209
      6       2.00000        -380.505523       -10354.08209
      7       2.00000        -380.505523       -10354.08209
      8       2.00000        -380.505523       -10354.08209
      9       2.00000         -54.764508        -1490.21808
     10       2.00000         -54.764508        -1490.21808
     11       2.00000         -54.764508        -1490.21808
     12       2.00000         -54.764508        -1490.21808
     13       2.00000         -48.011218        -1306.45171
     14       2.00000         -48.011218        -1306.45171
     15       2.00000         -48.011218        -1306.45171
     16       2.00000         -48.011218        -1306.45171
     17       2.00000         -48.011218        -1306.45171
     18       2.00000         -48.011218        -1306.45171
     19       2.00000         -48.011218        -1306.45171
     20       2.00000         -48.011218        -1306.45171
     21       2.00000         -48.011218        -1306.45171
     22       2.00000         -48.011218        -1306.45171
     23       2.00000         -48.011218        -1306.45171
     24       2.00000         -48.011218        -1306.45171
     25       2.00000         -46.477017        -1264.70399
     26       2.00000         -46.477017        -1264.70399
     27       2.00000         -46.477017        -1264.70399
     28       2.00000         -46.477017        -1264.70399
     29       2.00000         -40.450365        -1100.71043
     30       2.00000         -40.450365        -1100.71043
     31       2.00000         -40.450365        -1100.71043
     32       2.00000         -40.450365        -1100.71043
     33       2.00000         -40.450365        -1100.71043
     34       2.00000         -40.450365        -1100.71043
     35       2.00000         -40.450365        -1100.71042
     36       2.00000         -40.450365        -1100.71042
     37       2.00000         -40.450365        -1100.71042
     38       2.00000         -40.450365        -1100.71042
     39       2.00000         -40.450365        -1100.71042
     40       2.00000         -40.450365        -1100.71042
     41       2.00000          -7.004887         -190.61266
     42       2.00000          -7.004887         -190.61266
     43       2.00000          -7.004887         -190.61266
     44       2.00000          -7.004887         -190.61266
     45       2.00000          -5.446550         -148.20816
     46       2.00000          -5.446550         -148.20816
     47       2.00000          -5.446550         -148.20816
     48       2.00000          -5.446550         -148.20816
     49       2.00000          -4.922809         -133.95644
     50       2.00000          -4.922809         -133.95644
     51       2.00000          -4.922809         -133.95644
     52       2.00000          -4.922809         -133.95644
     53       2.00000          -4.922809         -133.95644
     54       2.00000          -4.922809         -133.95644
     55       2.00000          -4.922809         -133.95644
     56       2.00000          -4.922809         -133.95644
     57       2.00000          -4.922809         -133.95644
     58       2.00000          -4.922809         -133.95644
     59       2.00000          -4.922809         -133.95644
     60       2.00000          -4.922809         -133.95644
     61       2.00000          -3.635540          -98.92807
     62       2.00000          -3.635540          -98.92807
     63       2.00000          -3.635540          -98.92807
     64       2.00000          -3.635539          -98.92806
     65       2.00000          -3.635539          -98.92806
     66       2.00000          -3.635539          -98.92806
     67       2.00000          -3.635539          -98.92806
     68       2.00000          -3.635539          -98.92806
     69       2.00000          -3.635539          -98.92806
     70       2.00000          -3.635539          -98.92806
     71       2.00000          -3.635539          -98.92806
     72       2.00000          -3.635539          -98.92806
     73       2.00000          -1.506432          -40.99211
     74       2.00000          -1.506432          -40.99211
     75       2.00000          -1.506432          -40.99211
     76       2.00000          -1.506400          -40.99123
     77       2.00000          -1.506400          -40.99123
     78       2.00000          -1.506400          -40.99123
     79       2.00000          -1.506337          -40.98950
     80       2.00000          -1.506337          -40.98950
     81       2.00000          -1.506337          -40.98950
     82       2.00000          -1.506337          -40.98950
     83       2.00000          -1.506337          -40.98950
     84       2.00000          -1.506337          -40.98950
     85       2.00000          -1.505883          -40.97716
     86       2.00000          -1.505883          -40.97716
     87       2.00000          -1.505883          -40.97716
     88       2.00000          -1.505864          -40.97664
     89       2.00000          -1.505864          -40.97664
     90       2.00000          -1.505830          -40.97573
     91       2.00000          -1.505830          -40.97573
     92       2.00000          -1.505830          -40.97573
     93       2.00000          -0.720456          -19.60459
     94       2.00000          -0.720456          -19.60459
     95       2.00000          -0.720456          -19.60459
     96       2.00000          -0.714162          -19.43335
     97       2.00000          -0.714162          -19.43335
     98       2.00000          -0.714162          -19.43335
     99       2.00000          -0.712072          -19.37647
    100       2.00000          -0.712072          -19.37647
    101       2.00000          -0.712072          -19.37647
    102       2.00000          -0.712072          -19.37647
    103       2.00000          -0.712072          -19.37647
    104       2.00000          -0.712072          -19.37647
    105       2.00000          -0.711629          -19.36442
    106       2.00000          -0.711629          -19.36442
    107       2.00000          -0.711629          -19.36442
    108       2.00000          -0.710493          -19.33350
    109       2.00000          -0.710493          -19.33350
    110       2.00000          -0.709996          -19.31998
    111       2.00000          -0.709996          -19.31998
    112       2.00000          -0.709996          -19.31998
    113       2.00000          -0.672608          -18.30260
    114       2.00000          -0.583590          -15.88030
    115       2.00000          -0.583590          -15.88030
    116       2.00000          -0.583590          -15.88030
    117       2.00000          -0.446066          -12.13808
    118       2.00000          -0.446066          -12.13808
    119       2.00000          -0.446066          -12.13808
    120       2.00000          -0.299875           -8.16000
    121       2.00000          -0.299875           -8.16000
    122       2.00000          -0.299875           -8.16000
    123       2.00000          -0.299875           -8.16000
    124       2.00000          -0.299875           -8.16000
    125       2.00000          -0.299875           -8.16000
    126       2.00000          -0.205723           -5.59801
    127       2.00000          -0.205723           -5.59801
    128       2.00000          -0.205723           -5.59801
    129       0.00000          -0.180178           -4.90289
    130       0.00000          -0.140487           -3.82285
    131       0.00000          -0.140487           -3.82285
    132       0.00000          -0.140487           -3.82285
    133       0.00000          -0.134843           -3.66926
    134       0.00000          -0.134843           -3.66926
    135       0.00000          -0.134843           -3.66926
    136       0.00000          -0.055389           -1.50720
    137       0.00000          -0.055389           -1.50720
    138       0.00000          -0.055389           -1.50720
    139       0.00000           0.105928            2.88245
    140       0.00000           0.179698            4.88984
    141       0.00000           0.179698            4.88984
    142       0.00000           0.179698            4.88984
    143       0.00000           0.179698            4.88984
    144       0.00000           0.179698            4.88984
    145       0.00000           0.179698            4.88984
    146       0.00000           0.192575            5.24024
    147       0.00000           0.192575            5.24024
    148       0.00000           0.208284            5.66769
    149       0.00000           0.208284            5.66769
    150       0.00000           0.208284            5.66769
    151       0.00000           0.281982            7.67313
    152       0.00000           0.281982            7.67313
    153       0.00000           0.281982            7.67313
    154       0.00000           0.301526            8.20494
    155       0.00000           0.301526            8.20494
    156       0.00000           0.301526            8.20494
    157       0.00000           0.301526            8.20494
    158       0.00000           0.301526            8.20494
    159       0.00000           0.301526            8.20494
    160       0.00000           0.310997            8.46266
    161       0.00000           0.310997            8.46266
    162       0.00000           0.310997            8.46266
    163       0.00000           0.318306            8.66154
    164       0.00000           0.318306            8.66154
    165       0.00000           0.318306            8.66154
    166       0.00000           0.405448           11.03281
    167       0.00000           0.405448           11.03281
    168       0.00000           0.405448           11.03281
    169       0.00000           0.563916           15.34492
    170       0.00000           0.563916           15.34492
    171       0.00000           0.563916           15.34492
    172       0.00000           0.625773           17.02814

  What follows are estimated values for band gap, HOMO, LUMO, etc.
  | They are estimated on a discrete k-point grid and not necessarily exact.
  | For converged numbers, create a DOS and/or band structure plot on a denser k-grid.

  Highest occupied state (VBM) at     -5.59801000 eV (relative to internal zero)
  | Occupation number:      2.00000000
  | K-point:       1 at    0.000000    0.000000    0.000000 (in units of recip. lattice)

  Lowest unoccupied state (CBM) at    -4.90289157 eV (relative to internal zero)
  | Occupation number:      0.00000000
  | K-point:       1 at    0.000000    0.000000    0.000000 (in units of recip. lattice)

  ESTIMATED overall HOMO-LUMO gap:      0.69511842 eV between HOMO at k-point 1 and LUMO at k-point 1
  | This appears to be a direct band gap.
  The gap value is above 0.2 eV. Unless you are using a very sparse k-point grid,
  this system is most likely an insulator or a semiconductor.

  Total energy components:
  | Sum of eigenvalues            :       -9876.76535676 Ha     -268760.45973902 eV
  | XC energy correction          :        -639.50085752 Ha      -17401.70372208 eV
  | XC potential correction       :         831.75678758 Ha       22633.25375721 eV
  | Free-atom electrostatic energy:       -7231.46742797 Ha     -196778.24068160 eV
  | Hartree energy correction     :          -0.05824930 Ha          -1.58504421 eV
  | Entropy correction            :          -0.00000000 Ha          -0.00000000 eV
  | ---------------------------
  | Total energy                  :      -16916.03510397 Ha     -460308.73542970 eV
  | Total energy, T -> 0          :      -16916.03510397 Ha     -460308.73542970 eV  <-- do not rely on this value for anything but (periodic) metals
  | Electronic free energy        :      -16916.03510397 Ha     -460308.73542970 eV

  Derived energy quantities:
  | Kinetic energy                :       17226.10159459 Ha      468746.07392633 eV
  | Electrostatic energy          :      -33502.63584104 Ha     -911653.10563395 eV
  | Energy correction for multipole
  | error in Hartree potential    :           0.00265266 Ha           0.07218252 eV
  | Sum of eigenvalues per atom                           :      -33595.05746738 eV
  | Total energy (T->0) per atom                          :      -57538.59192871 eV  <-- do not rely on this value for anything but (periodic) metals
  | Electronic free energy per atom                       :      -57538.59192871 eV
  Evaluating new KS density using the density matrix
  Evaluating density matrix
  Time summed over all CPUs for getting density from density matrix: real work       18.871 s, elapsed       21.316 s
  Integration grid: deviation in total charge (<rho> - N_e) =   5.684342E-14

  Self-consistency convergence accuracy:
  | Change of charge density      :  0.1883E+00
  | Change of unmixed KS density  :  0.2638E+03
  | Change of sum of eigenvalues  :  0.1684E+01 eV
  | Change of total energy        :  0.7589E-01 eV


------------------------------------------------------------
  End self-consistency iteration #     1       :  max(cpu_time)    wall_clock(cpu1)
  | Time for this iteration                     :        7.039 s           7.043 s
  | Charge density update                       :        3.161 s           3.164 s
  | Density mixing & preconditioning            :        0.334 s           0.335 s
  | Hartree multipole update                    :        0.002 s           0.001 s
  | Hartree multipole summation                 :        0.518 s           0.519 s
  | Integration                                 :        1.298 s           1.298 s
  | Solution of K.-S. eqns.                     :        1.719 s           1.719 s
  | Total energy evaluation                     :        0.006 s           0.002 s

  Partial memory accounting:
  | Current value for overall tracked memory usage:
  |   Minimum:       30.742 MB (on task 0)
  |   Maximum:       31.456 MB (on task 1)
  |   Average:       31.099 MB
  | Peak value for overall tracked memory usage:
  |   Minimum:       37.988 MB (on task 6 after allocating wave)
  |   Maximum:       39.258 MB (on task 3 after allocating wave)
  |   Average:       38.588 MB
  | Largest tracked array allocation so far:
  |   Minimum:       22.844 MB (KS_eigenvector_complex on task 0)
  |   Maximum:       23.558 MB (KS_eigenvector_complex on task 1)
  |   Average:       23.201 MB
  Note:  These values currently only include a subset of arrays which are explicitly tracked.
  The "true" memory usage will be greater.
------------------------------------------------------------

------------------------------------------------------------
          Begin self-consistency iteration #    2

  Date     :  20221215, Time     :  122511.452
------------------------------------------------------------
  Pulay mixing of updated and previous charge densities.
  Renormalizing the density to the exact electron count on the 3D integration grid.
  | Formal number of electrons (from input files) :     256.0000000000
  | Integrated number of electrons on 3D grid     :     255.9889158419
  | Charge integration error                      :      -0.0110841581
  | Normalization factor for density and gradient :       1.0000432994

  Evaluating partitioned Hartree potential by multipole expansion.
  | Original multipole sum: apparent total charge =  -0.614193E-12
  | Sum of charges compensated after spline to logarithmic grids =  -0.231708E-04
  | Analytical far-field extrapolation by fixed multipoles:
  | Hartree multipole sum: apparent total charge =  -0.613591E-12
  Summing up the Hartree potential.
  Time summed over all CPUs for potential: real work        4.346 s, elapsed        4.954 s
  | RMS charge density error from multipole expansion :   0.101648E-01
  | Average real-space part of the electrostatic potential :      0.14584166 eV

  Integrating Hamiltonian matrix: batch-based integration.
  Time summed over all CPUs for integration: real work       11.179 s, elapsed       12.355 s

  Updating Kohn-Sham eigenvalues and eigenvectors using ELSI and the (modified) LAPACK eigensolver.
  Starting LAPACK eigensolver
  Finished Cholesky decomposition
  | Time :     0.007 s
  Finished transformation to standard eigenproblem
  | Time :     0.020 s
  Finished solving standard eigenproblem
  | Time :     0.026 s
  Finished back-transformation of eigenvectors
  | Time :     0.004 s

  Obtaining occupation numbers and electronic chemical potential using ELSI.
  | Note that, for insulating systems, the printed 'chemical potential' value is not uniquely defined.
  | It can be anywhere in the energy gap, as long as it correctly separates occupied and unoccupied states.
  | In systems with a gap, the physically relevant chemical potential is the VBM or HOMO.

  | Chemical potential (Fermi level):    -4.99008662 eV
  What follows are estimated values for band gap, HOMO, LUMO, etc.
  | They are estimated on a discrete k-point grid and not necessarily exact.
  | For converged numbers, create a DOS and/or band structure plot on a denser k-grid.

  Highest occupied state (VBM) at     -5.25835598 eV (relative to internal zero)
  | Occupation number:      2.00000000
  | K-point:       1 at    0.000000    0.000000    0.000000 (in units of recip. lattice)

  Lowest unoccupied state (CBM) at    -4.70909532 eV (relative to internal zero)
  | Occupation number:      0.00000000
  | K-point:       1 at    0.000000    0.000000    0.000000 (in units of recip. lattice)

  ESTIMATED overall HOMO-LUMO gap:      0.54926066 eV between HOMO at k-point 1 and LUMO at k-point 1
  | This appears to be a direct band gap.
  The gap value is above 0.2 eV. Unless you are using a very sparse k-point grid,
  this system is most likely an insulator or a semiconductor.

  Checking to see if s.c.f. parameters should be adjusted.
  The system likely has a gap. Increased the default Pulay mixing parameter (charge_mix_param). Value:   0.200000 .
  Kept the default occupation width. Value:   0.010000 eV.

  Total energy components:
  | Sum of eigenvalues            :       -9875.95027828 Ha     -268738.28032513 eV
  | XC energy correction          :        -639.49057782 Ha      -17401.42399706 eV
  | XC potential correction       :         831.73964076 Ha       22632.78716866 eV
  | Free-atom electrostatic energy:       -7231.46742797 Ha     -196778.24068160 eV
  | Hartree energy correction     :          -0.84991854 Ha         -23.12746005 eV
  | Entropy correction            :          -0.00000000 Ha          -0.00000000 eV
  | ---------------------------
[...]
     22       2.00000         -47.987270        -1305.80006
     23       2.00000         -47.987270        -1305.80006
     24       2.00000         -47.987270        -1305.80006
     25       2.00000         -46.499446        -1265.31430
     26       2.00000         -46.499446        -1265.31430
     27       2.00000         -46.499446        -1265.31430
     28       2.00000         -46.499446        -1265.31430
     29       2.00000         -40.472315        -1101.30771
     30       2.00000         -40.472315        -1101.30771
     31       2.00000         -40.472315        -1101.30771
     32       2.00000         -40.472315        -1101.30771
     33       2.00000         -40.472315        -1101.30771
     34       2.00000         -40.472315        -1101.30771
     35       2.00000         -40.472315        -1101.30771
     36       2.00000         -40.472315        -1101.30771
     37       2.00000         -40.472315        -1101.30771
     38       2.00000         -40.472314        -1101.30771
     39       2.00000         -40.472314        -1101.30771
     40       2.00000         -40.472314        -1101.30771
     41       2.00000          -6.980989         -189.96239
     42       2.00000          -6.980989         -189.96239
     43       2.00000          -6.980989         -189.96239
     44       2.00000          -6.980989         -189.96239
     45       2.00000          -5.469755         -148.83960
     46       2.00000          -5.469755         -148.83960
     47       2.00000          -5.469755         -148.83960
     48       2.00000          -5.469755         -148.83960
     49       2.00000          -4.898629         -133.29848
     50       2.00000          -4.898629         -133.29848
     51       2.00000          -4.898629         -133.29848
     52       2.00000          -4.898629         -133.29848
     53       2.00000          -4.898629         -133.29848
     54       2.00000          -4.898629         -133.29848
     55       2.00000          -4.898629         -133.29848
     56       2.00000          -4.898629         -133.29848
     57       2.00000          -4.898629         -133.29848
     58       2.00000          -4.898629         -133.29848
     59       2.00000          -4.898629         -133.29848
     60       2.00000          -4.898629         -133.29848
     61       2.00000          -3.658228          -99.54545
     62       2.00000          -3.658228          -99.54545
     63       2.00000          -3.658228          -99.54545
     64       2.00000          -3.658228          -99.54544
     65       2.00000          -3.658228          -99.54544
     66       2.00000          -3.658228          -99.54544
     67       2.00000          -3.658228          -99.54544
     68       2.00000          -3.658228          -99.54544
     69       2.00000          -3.658228          -99.54544
     70       2.00000          -3.658228          -99.54544
     71       2.00000          -3.658228          -99.54544
     72       2.00000          -3.658228          -99.54544
     73       2.00000          -1.481698          -40.31906
     74       2.00000          -1.481698          -40.31906
     75       2.00000          -1.481698          -40.31906
     76       2.00000          -1.481665          -40.31815
     77       2.00000          -1.481665          -40.31815
     78       2.00000          -1.481665          -40.31815
     79       2.00000          -1.481600          -40.31638
     80       2.00000          -1.481600          -40.31638
     81       2.00000          -1.481600          -40.31638
     82       2.00000          -1.481600          -40.31638
     83       2.00000          -1.481600          -40.31638
     84       2.00000          -1.481600          -40.31638
     85       2.00000          -1.481356          -40.30974
     86       2.00000          -1.481356          -40.30974
     87       2.00000          -1.481356          -40.30974
     88       2.00000          -1.481337          -40.30922
     89       2.00000          -1.481337          -40.30922
     90       2.00000          -1.481301          -40.30826
     91       2.00000          -1.481301          -40.30826
     92       2.00000          -1.481301          -40.30826
     93       2.00000          -0.737798          -20.07652
     94       2.00000          -0.737798          -20.07652
     95       2.00000          -0.737798          -20.07652
     96       2.00000          -0.733629          -19.96307
     97       2.00000          -0.733629          -19.96307
     98       2.00000          -0.733629          -19.96307
     99       2.00000          -0.731803          -19.91336
    100       2.00000          -0.731803          -19.91336
    101       2.00000          -0.731803          -19.91336
    102       2.00000          -0.731803          -19.91336
    103       2.00000          -0.731803          -19.91336
    104       2.00000          -0.731803          -19.91336
    105       2.00000          -0.731750          -19.91192
    106       2.00000          -0.731750          -19.91192
    107       2.00000          -0.731750          -19.91192
    108       2.00000          -0.730792          -19.88585
    109       2.00000          -0.730792          -19.88585
    110       2.00000          -0.730344          -19.87368
    111       2.00000          -0.730344          -19.87368
    112       2.00000          -0.730344          -19.87368
    113       2.00000          -0.658700          -17.92413
    114       2.00000          -0.566682          -15.42021
    115       2.00000          -0.566682          -15.42021
    116       2.00000          -0.566682          -15.42021
    117       2.00000          -0.441411          -12.01140
    118       2.00000          -0.441411          -12.01140
    119       2.00000          -0.441411          -12.01140
    120       2.00000          -0.289381           -7.87444
    121       2.00000          -0.289381           -7.87444
    122       2.00000          -0.289381           -7.87444
    123       2.00000          -0.289381           -7.87444
    124       2.00000          -0.289381           -7.87444
    125       2.00000          -0.289381           -7.87444
    126       2.00000          -0.190994           -5.19720
    127       2.00000          -0.190994           -5.19720
    128       2.00000          -0.190994           -5.19720
    129       0.00000          -0.171007           -4.65333
    130       0.00000          -0.136029           -3.70153
    131       0.00000          -0.136029           -3.70153
    132       0.00000          -0.136029           -3.70153
    133       0.00000          -0.128804           -3.50493
    134       0.00000          -0.128804           -3.50493
    135       0.00000          -0.128804           -3.50493
    136       0.00000          -0.052979           -1.44163
    137       0.00000          -0.052979           -1.44163
    138       0.00000          -0.052979           -1.44163
    139       0.00000           0.111657            3.03835
    140       0.00000           0.187206            5.09413
    141       0.00000           0.187206            5.09413
    142       0.00000           0.187206            5.09413
    143       0.00000           0.187206            5.09413
    144       0.00000           0.187206            5.09413
    145       0.00000           0.187206            5.09413
    146       0.00000           0.197548            5.37555
    147       0.00000           0.197548            5.37555
    148       0.00000           0.224612            6.11200
    149       0.00000           0.224612            6.11200
    150       0.00000           0.224612            6.11200
    151       0.00000           0.285829            7.77780
    152       0.00000           0.285829            7.77780
    153       0.00000           0.285829            7.77780
    154       0.00000           0.310923            8.46064
    155       0.00000           0.310923            8.46064
    156       0.00000           0.310923            8.46064
    157       0.00000           0.310923            8.46064
    158       0.00000           0.310923            8.46064
    159       0.00000           0.310923            8.46064
    160       0.00000           0.315472            8.58442
    161       0.00000           0.315472            8.58442
    162       0.00000           0.315472            8.58442
    163       0.00000           0.327881            8.92210
    164       0.00000           0.327881            8.92210
    165       0.00000           0.327881            8.92210
    166       0.00000           0.405949           11.04643
    167       0.00000           0.405949           11.04643
    168       0.00000           0.405949           11.04643
    169       0.00000           0.576047           15.67503
    170       0.00000           0.576047           15.67503
    171       0.00000           0.576047           15.67503
    172       0.00000           0.631627           17.18745

  What follows are estimated values for band gap, HOMO, LUMO, etc.
  | They are estimated on a discrete k-point grid and not necessarily exact.
  | For converged numbers, create a DOS and/or band structure plot on a denser k-grid.

  Highest occupied state (VBM) at     -5.19719873 eV (relative to internal zero)
  | Occupation number:      2.00000000
  | K-point:       1 at    0.000000    0.000000    0.000000 (in units of recip. lattice)

  Lowest unoccupied state (CBM) at    -4.65332568 eV (relative to internal zero)
  | Occupation number:      0.00000000
  | K-point:       1 at    0.000000    0.000000    0.000000 (in units of recip. lattice)

  ESTIMATED overall HOMO-LUMO gap:      0.54387305 eV between HOMO at k-point 1 and LUMO at k-point 1
  | This appears to be a direct band gap.
  The gap value is above 0.2 eV. Unless you are using a very sparse k-point grid,
  this system is most likely an insulator or a semiconductor.

  | Chemical Potential                          :    -4.96240783 eV
  | Note that, for insulating systems, the printed 'chemical potential' value is not uniquely defined.
  | It can be anywhere in the energy gap, as long as it correctly separates occupied and unoccupied states.
  | In systems with a gap, the physically relevant chemical potential is the VBM or HOMO.

  Self-consistency cycle converged.


------------------------------------------------------------
  End self-consistency iteration #    13       :  max(cpu_time)    wall_clock(cpu1)
  | Time for this iteration                     :        5.147 s           5.153 s
  | Charge density update                       :        0.000 s           0.000 s
  | Density mixing                              :        0.483 s           0.481 s
  | Hartree multipole update                    :        0.002 s           0.003 s
  | Hartree multipole summation                 :        0.898 s           0.898 s
  | Integration                                 :        1.420 s           1.420 s
  | Solution of K.-S. eqns.                     :        2.336 s           2.338 s
  | Total energy evaluation                     :        0.004 s           0.003 s

  Partial memory accounting:
  | Current value for overall tracked memory usage:
  |   Minimum:       30.743 MB (on task 0)
  |   Maximum:       31.456 MB (on task 1)
  |   Average:       31.100 MB
  | Peak value for overall tracked memory usage:
  |   Minimum:       37.988 MB (on task 6 after allocating wave)
  |   Maximum:       39.258 MB (on task 3 after allocating wave)
  |   Average:       38.588 MB
  | Largest tracked array allocation so far:
  |   Minimum:       22.844 MB (KS_eigenvector_complex on task 0)
  |   Maximum:       23.558 MB (KS_eigenvector_complex on task 1)
  |   Average:       23.201 MB
  Note:  These values currently only include a subset of arrays which are explicitly tracked.
  The "true" memory usage will be greater.
------------------------------------------------------------

  Energy and forces in a compact form:
  | Total energy uncorrected      :         -0.460308259304951E+06 eV
  | Total energy corrected        :         -0.460308259304951E+06 eV  <-- do not rely on this value for anything but (periodic) metals
  | Electronic free energy        :         -0.460308259304951E+06 eV

  ------------------------------------
  Start decomposition of the XC Energy
  ------------------------------------
  X and C from original XC functional choice
  Hartree-Fock Energy :          0.000000000 Ha              0.000000000 eV
  X Energy            :       -627.005930877 Ha         -17061.699468880 eV
  C Energy            :        -12.497249529 Ha           -340.067462123 eV
  XC Energy w/o HF    :       -639.503180406 Ha         -17401.766931003 eV
  Total XC Energy     :       -639.503180406 Ha         -17401.766931003 eV
  ------------------------------------
  LDA X and C from self-consistent density
  X Energy LDA        :       -592.967830386 Ha         -16135.475628760 eV
  C Energy LDA        :        -23.002264161 Ha           -625.923454443 eV
  ------------------------------------
  End decomposition of the XC Energy
  ------------------------------------

------------------------------------------------------------

------------------------------------------------------------------------------
  Final output of selected total energy values:

  The following output summarizes some interesting total energy values
  at the end of a run (AFTER all relaxation, molecular dynamics, etc.).

  | Total energy of the DFT / Hartree-Fock s.c.f. calculation      :        -460308.259304951 eV
  | Final zero-broadening corrected energy (caution - metals only) :        -460308.259304951 eV
  | For reference only, the value of 1 Hartree used in FHI-aims is :             27.211384500 eV
  | For reference only, the overall average (free atom contribution
  | + realspace contribution) of the electrostatic potential after
  | s.c.f. convergence is                                          :            -14.368253422 eV

  Before relying on these values, please be sure to understand exactly which
  total energy value is referred to by a given number. Different objects may
  all carry the same name 'total energy'. Definitions:

  Total energy of the DFT / Hartree-Fock s.c.f. calculation:
  | Note that this energy does not include ANY quantities calculated after the
  | s.c.f. cycle, in particular not ANY RPA, MP2, etc. many-body perturbation terms.

  Final zero-broadening corrected energy:
  | For metallic systems only, a broadening of the occupation numbers at the Fermi
  | level can be extrapolated back to zero broadening by an electron-gas inspired
  | formula. For all systems that are not real metals, this value can be
  | meaningless and should be avoided.

------------------------------------------------------------------------------
  Methods described in the following list of references were used in this FHI-aims run.
  If you publish the results, please make sure to cite these reference if they apply.
  FHI-aims is an academic code, and for our developers (often, Ph.D. students
  and postdocs), scientific credit in the community is essential.
  Thank you for helping us!

  For any use of FHI-aims, please cite:

    Volker Blum, Ralf Gehrke, Felix Hanke, Paula Havu, Ville Havu,
    Xinguo Ren, Karsten Reuter, and Matthias Scheffler
    'Ab initio molecular simulations with numeric atom-centered orbitals'
    Computer Physics Communications 180, 2175-2196 (2009)
    http://doi.org/10.1016/j.cpc.2009.06.022


  The provided symmetry information was generated with SPGlib:

    Atsushi Togo, Yusuke Seto, Dimitar Pashov
    SPGlib 1.7.3 obtained from http://spglib.sourceforge.net
    Copyright (C) 2008 Atsushi Togo


  The ELSI infrastructure was used in your run to solve the Kohn-Sham electronic structure.
  Please check out http://elsi-interchange.org to learn more.
  If scalability is important for your project, please acknowledge ELSI by citing:

    V. W-z. Yu, F. Corsetti, A. Garcia, W. P. Huhn, M. Jacquelin, W. Jia,
    B. Lange, L. Lin, J. Lu, W. Mi, A. Seifitokaldani, A. Vazquez-Mayagoitia,
    C. Yang, H. Yang, and V. Blum
    'ELSI: A unified software interface for Kohn-Sham electronic structure solvers'
    Computer Physics Communications 222, 267-285 (2018).
    http://doi.org/10.1016/j.cpc.2017.09.007


  For the real-space grid partitioning and parallelization used in this calculation, please cite:

    Ville Havu, Volker Blum, Paula Havu, and Matthias Scheffler,
    'Efficient O(N) integration for all-electron electronic structure calculation'
    'using numerically tabulated basis functions'
    Journal of Computational Physics 228, 8367-8379 (2009).
    http://doi.org/10.1016/j.jcp.2009.08.008

  Of course, there are many other important community references, e.g., those cited in the
  above references. Our list is limited to references that describe implementations in the
  FHI-aims code. The reason is purely practical (length of this list) - please credit others as well.

 * A warning was issued further up regarding the accuracy of onsite integrals.
   An integral with a negative eigenvalue was among the flagged integrals.
   In most standard situations, this warning is probably harmless.
   If needed, this can be verified by adjusting the radial_multiplier flag.

------------------------------------------------------------
          Leaving FHI-aims.
          Date     :  20221215, Time     :  122649.916

          Computational steps:
          | Number of self-consistency cycles          :           13
          | Number of SCF (re)initializations          :            1

          Detailed time accounting                     :  max(cpu_time)    wall_clock(cpu1)
          | Total time                                  :      113.806 s         114.208 s
          | Preparation time                            :        0.342 s           0.342 s
          | Boundary condition initalization            :        0.082 s           0.082 s
          | Grid partitioning                           :        0.075 s           0.075 s
          | Preloading free-atom quantities on grid     :        0.270 s           0.270 s
          | Free-atom superposition energy              :        0.048 s           0.047 s
          | Total time for integrations                 :       21.252 s          21.258 s
          | Total time for solution of K.-S. equations  :       30.541 s          30.571 s
          | Total time for density update               :       44.520 s          44.534 s
          | Total time for mixing & preconditioning     :        6.039 s           6.026 s
          | Total time for Hartree multipole update     :        0.029 s           0.030 s
          | Total time for Hartree multipole sum        :       10.708 s          10.711 s
          | Total time for total energy evaluation      :        0.056 s           0.040 s
          | Total time for scaled ZORA corrections      :        0.000 s           0.000 s

          Partial memory accounting:
          | Residual value for overall tracked memory usage across tasks:     0.000000 MB (should be 0.000000 MB)
          | Peak values for overall tracked memory usage:
          |   Minimum:       37.988 MB (on task 6 after allocating wave)
          |   Maximum:       39.258 MB (on task 3 after allocating wave)
          |   Average:       38.588 MB
          | Largest tracked array allocation:
          |   Minimum:       22.844 MB (KS_eigenvector_complex on task 0)
          |   Maximum:       23.558 MB (KS_eigenvector_complex on task 1)
          |   Average:       23.201 MB
          Note:  These values currently only include a subset of arrays which are explicitly tracked.
          The "true" memory usage will be greater.

          Have a nice day.
------------------------------------------------------------
